20
	Energy:      24.7883750
X         0.00000        3.26600        0.00000
X         0.00000       -3.26600        0.00000
X         0.00000        0.00000       -3.26600
C          0.03979       -2.38646       -0.58732
C          0.03269        0.44829       -2.37563
O          1.17349       -1.97850        0.12099
O         -1.13658       -0.13217       -1.85823
O          1.12712       -0.08712        2.01259
O         -1.12131       -2.00378        0.09004
O          1.20009       -0.10642       -1.82670
O         -1.18482        1.83568        0.10982
O          1.15185        1.86142        0.14136
O         -1.16768       -0.11239        1.98162
Cu         1.17324       -0.06899        0.10364
C         -0.01470        2.38181       -0.44190
Cu        -1.16266       -0.09472        0.07212
C         -0.03324        0.59305        2.39251
X         0.00000        0.00000        3.26600
X         -3.02517       -0.12371        0.05546
X          3.03571       -0.05695        0.13725
